128  
2    

1    
  0.0100000000000000   0.0000000000000000   0.0000000000000000
  -0.0783832900   -0.0000000000    0.0000000000
   0.0072564000   -0.0000000000    0.0000000000
  -0.0021757100   -0.0000000000    0.0000000000
   0.0070834100   -0.0000000000    0.0000000000
  -0.0017489100   -0.0000267900    0.0000000000
   0.0014253700   -0.0000828500    0.0000000000
   0.0000794300   -0.0000017600    0.0000000000
   0.0014210500    0.0000801900    0.0000000000
  -0.0009007600   -0.0000000000    0.0000000000
  -0.0004442500   -0.0000000000    0.0000000000
   0.0007493000   -0.0000000000    0.0000000000
  -0.0004513200   -0.0000000000    0.0000000000
  -0.0017489100    0.0000267900    0.0000000000
   0.0014253700    0.0000828500    0.0000000000
   0.0000794300    0.0000017600    0.0000000000
   0.0014210500   -0.0000801900    0.0000000000
  -0.0017489100   -0.0000000000   -0.0000267900
   0.0014253700   -0.0000000000   -0.0000828500
   0.0000794300   -0.0000000000   -0.0000017600
   0.0014210500   -0.0000000000    0.0000801900
   0.0009658700   -0.0000030200   -0.0000030200
   0.0011977900    0.0013312900    0.0013312900
   0.0005632500   -0.0000054400   -0.0000054400
   0.0012008900   -0.0013356100   -0.0013356100
   0.0001659800   -0.0000000000    0.0000006600
  -0.0000076400   -0.0000000000   -0.0000570000
  -0.0000376200   -0.0000000000    0.0000006800
  -0.0000054600   -0.0000000000    0.0000535200
   0.0009658700    0.0000030200   -0.0000030200
   0.0011977900   -0.0013312900    0.0013312900
   0.0005632500    0.0000054400   -0.0000054400
   0.0012008900    0.0013356100   -0.0013356100
  -0.0009007600   -0.0000000000    0.0000000000
  -0.0004442500   -0.0000000000    0.0000000000
   0.0007493000   -0.0000000000    0.0000000000
  -0.0004513200   -0.0000000000    0.0000000000
   0.0001659800    0.0000006600    0.0000000000
  -0.0000076400   -0.0000570000    0.0000000000
  -0.0000376200    0.0000006800    0.0000000000
  -0.0000054600    0.0000535200    0.0000000000
   0.0004094500   -0.0000000000    0.0000000000
  -0.0002140800   -0.0000000000    0.0000000000
   0.0013616200   -0.0000000000    0.0000000000
  -0.0002179000   -0.0000000000    0.0000000000
   0.0001659800   -0.0000006600    0.0000000000
  -0.0000076400    0.0000570000    0.0000000000
  -0.0000376200   -0.0000006800    0.0000000000
  -0.0000054600   -0.0000535200    0.0000000000
  -0.0017489100   -0.0000000000    0.0000267900
   0.0014253700   -0.0000000000    0.0000828500
   0.0000794300   -0.0000000000    0.0000017600
   0.0014210500   -0.0000000000   -0.0000801900
   0.0009658700   -0.0000030200    0.0000030200
   0.0011977900    0.0013312900   -0.0013312900
   0.0005632500   -0.0000054400    0.0000054400
   0.0012008900   -0.0013356100    0.0013356100
   0.0001659800   -0.0000000000   -0.0000006600
  -0.0000076400   -0.0000000000    0.0000570000
  -0.0000376200   -0.0000000000   -0.0000006800
  -0.0000054600   -0.0000000000   -0.0000535200
   0.0009658700    0.0000030200    0.0000030200
   0.0011977900   -0.0013312900   -0.0013312900
   0.0005632500    0.0000054400    0.0000054400
   0.0012008900    0.0013356100    0.0013356100
   0.0060944600    0.0098743000    0.0098743000
  -0.0000564200    0.0005033400    0.0005033400
  -0.0000586900   -0.0004927000   -0.0004927000
   0.0059577300   -0.0095852900   -0.0095852900
   0.0000471500    0.0000256300    0.0000640800
   0.0000277100    0.0003147100   -0.0001025400
   0.0000167300   -0.0003118800    0.0001101700
   0.0000531000   -0.0000125100   -0.0000676600
   0.0000471500   -0.0000256300    0.0000640800
   0.0000277100   -0.0003147100   -0.0001025400
   0.0000167300    0.0003118800    0.0001101700
   0.0000531000    0.0000125100   -0.0000676600
   0.0060944600   -0.0098743000    0.0098743000
  -0.0000564200   -0.0005033400    0.0005033400
  -0.0000586900    0.0004927000   -0.0004927000
   0.0059577300    0.0095852900   -0.0095852900
   0.0000471500    0.0000640800    0.0000256300
   0.0000277100   -0.0001025400    0.0003147100
   0.0000167300    0.0001101700   -0.0003118800
   0.0000531000   -0.0000676600   -0.0000125100
  -0.0000677700    0.0000175200    0.0000175200
  -0.0002896100   -0.0001606600   -0.0001606600
  -0.0002873500    0.0001645400    0.0001645400
  -0.0000581800   -0.0000164000   -0.0000164000
  -0.0000677700   -0.0000175200    0.0000175200
  -0.0002896100    0.0001606600   -0.0001606600
  -0.0002873500   -0.0001645400    0.0001645400
  -0.0000581800    0.0000164000   -0.0000164000
   0.0000471500   -0.0000640800    0.0000256300
   0.0000277100    0.0001025400    0.0003147100
   0.0000167300   -0.0001101700   -0.0003118800
   0.0000531000    0.0000676600   -0.0000125100
   0.0000471500    0.0000640800   -0.0000256300
   0.0000277100   -0.0001025400   -0.0003147100
   0.0000167300    0.0001101700    0.0003118800
   0.0000531000   -0.0000676600    0.0000125100
  -0.0000677700    0.0000175200   -0.0000175200
  -0.0002896100   -0.0001606600    0.0001606600
  -0.0002873500    0.0001645400   -0.0001645400
  -0.0000581800   -0.0000164000    0.0000164000
  -0.0000677700   -0.0000175200   -0.0000175200
  -0.0002896100    0.0001606600    0.0001606600
  -0.0002873500   -0.0001645400   -0.0001645400
  -0.0000581800    0.0000164000    0.0000164000
   0.0000471500   -0.0000640800   -0.0000256300
   0.0000277100    0.0001025400   -0.0003147100
   0.0000167300   -0.0001101700    0.0003118800
   0.0000531000    0.0000676600    0.0000125100
   0.0060944600    0.0098743000   -0.0098743000
  -0.0000564200    0.0005033400   -0.0005033400
  -0.0000586900   -0.0004927000    0.0004927000
   0.0059577300   -0.0095852900    0.0095852900
   0.0000471500    0.0000256300   -0.0000640800
   0.0000277100    0.0003147100    0.0001025400
   0.0000167300   -0.0003118800   -0.0001101700
   0.0000531000   -0.0000125100    0.0000676600
   0.0000471500   -0.0000256300   -0.0000640800
   0.0000277100   -0.0003147100    0.0001025400
   0.0000167300    0.0003118800   -0.0001101700
   0.0000531000    0.0000125100    0.0000676600
   0.0060944600   -0.0098743000   -0.0098743000
  -0.0000564200   -0.0005033400   -0.0005033400
  -0.0000586900    0.0004927000    0.0004927000
   0.0059577300    0.0095852900    0.0095852900

65   
  0.0100000000000000   0.0000000000000000   0.0000000000000000
   0.0059413400    0.0096443400    0.0096443400
   0.0061036600   -0.0098161700   -0.0098161700
  -0.0000589500   -0.0000207200   -0.0000207200
  -0.0000565500    0.0000203200    0.0000203200
   0.0059413400   -0.0096443400    0.0096443400
   0.0061036600    0.0098161700   -0.0098161700
  -0.0000589500    0.0000207200   -0.0000207200
  -0.0000565500   -0.0000203200    0.0000203200
   0.0000453100   -0.0005025400    0.0000639500
   0.0000534700    0.0004918300   -0.0000721800
   0.0000176300    0.0003143300   -0.0000197100
   0.0000252700   -0.0003151100    0.0000170300
   0.0000453100    0.0005025400    0.0000639500
   0.0000534700   -0.0004918300   -0.0000721800
   0.0000176300   -0.0003143300   -0.0000197100
   0.0000252700    0.0003151100    0.0000170300
   0.0059413400    0.0096443400   -0.0096443400
   0.0061036600   -0.0098161700    0.0098161700
  -0.0000589500   -0.0000207200    0.0000207200
  -0.0000565500    0.0000203200   -0.0000203200
   0.0059413400   -0.0096443400   -0.0096443400
   0.0061036600    0.0098161700    0.0098161700
  -0.0000589500    0.0000207200    0.0000207200
  -0.0000565500   -0.0000203200   -0.0000203200
   0.0000453100   -0.0005025400   -0.0000639500
   0.0000534700    0.0004918300    0.0000721800
   0.0000176300    0.0003143300    0.0000197100
   0.0000252700   -0.0003151100   -0.0000170300
   0.0000453100    0.0005025400   -0.0000639500
   0.0000534700   -0.0004918300    0.0000721800
   0.0000176300   -0.0003143300    0.0000197100
   0.0000252700    0.0003151100   -0.0000170300
   0.0000453100    0.0000639500   -0.0005025400
   0.0000534700   -0.0000721800    0.0004918300
   0.0000176300   -0.0000197100    0.0003143300
   0.0000252700    0.0000170300   -0.0003151100
   0.0000453100   -0.0000639500   -0.0005025400
   0.0000534700    0.0000721800    0.0004918300
   0.0000176300    0.0000197100    0.0003143300
   0.0000252700   -0.0000170300   -0.0003151100
  -0.0000597500    0.0000978800    0.0000978800
  -0.0000619300   -0.0001115300   -0.0001115300
  -0.0002957900   -0.0001685500   -0.0001685500
  -0.0002892900    0.0001538900    0.0001538900
  -0.0000597500   -0.0000978800    0.0000978800
  -0.0000619300    0.0001115300   -0.0001115300
  -0.0002957900    0.0001685500   -0.0001685500
  -0.0002892900   -0.0001538900    0.0001538900
   0.0000453100    0.0000639500    0.0005025400
   0.0000534700   -0.0000721800   -0.0004918300
   0.0000176300   -0.0000197100   -0.0003143300
   0.0000252700    0.0000170300    0.0003151100
   0.0000453100   -0.0000639500    0.0005025400
   0.0000534700    0.0000721800   -0.0004918300
   0.0000176300    0.0000197100   -0.0003143300
   0.0000252700   -0.0000170300    0.0003151100
  -0.0000597500    0.0000978800   -0.0000978800
  -0.0000619300   -0.0001115300    0.0001115300
  -0.0002957900   -0.0001685500    0.0001685500
  -0.0002892900    0.0001538900   -0.0001538900
  -0.0000597500   -0.0000978800   -0.0000978800
  -0.0000619300    0.0001115300    0.0001115300
  -0.0002957900    0.0001685500    0.0001685500
  -0.0002892900   -0.0001538900   -0.0001538900
  -0.0869565900   -0.0000000000    0.0000000000
   0.0158695000   -0.0000000000    0.0000000000
  -0.0023133000   -0.0000000000    0.0000000000
   0.0151732700   -0.0000000000    0.0000000000
   0.0000887500   -0.0000039900    0.0000000000
   0.0004603900   -0.0003499000    0.0000000000
   0.0006532100    0.0000103700    0.0000000000
   0.0004416900    0.0003638400    0.0000000000
   0.0002249800   -0.0000000000    0.0000000000
  -0.0001130200   -0.0000000000    0.0000000000
   0.0007520300   -0.0000000000    0.0000000000
  -0.0001134900   -0.0000000000    0.0000000000
   0.0000887500    0.0000039900    0.0000000000
   0.0004603900    0.0003499000    0.0000000000
   0.0006532100   -0.0000103700    0.0000000000
   0.0004416900   -0.0003638400    0.0000000000
   0.0000887500   -0.0000000000   -0.0000039900
   0.0004603900   -0.0000000000   -0.0003499000
   0.0006532100   -0.0000000000    0.0000103700
   0.0004416900   -0.0000000000    0.0003638400
   0.0003247700   -0.0000000100   -0.0000000100
   0.0004576000    0.0001768100    0.0001768100
   0.0001762100   -0.0000019800   -0.0000019800
   0.0004241900   -0.0001613700   -0.0001613700
   0.0000491100   -0.0000000000   -0.0000022700
  -0.0001441900   -0.0000000000    0.0001614300
  -0.0003376200   -0.0000000000    0.0000077500
  -0.0001451800   -0.0000000000   -0.0001540100
   0.0003247700    0.0000000100   -0.0000000100
   0.0004576000   -0.0001768100    0.0001768100
   0.0001762100    0.0000019800   -0.0000019800
   0.0004241900    0.0001613700   -0.0001613700
   0.0002249800   -0.0000000000    0.0000000000
  -0.0001130200   -0.0000000000    0.0000000000
   0.0007520300   -0.0000000000    0.0000000000
  -0.0001134900   -0.0000000000    0.0000000000
   0.0000491100   -0.0000022700    0.0000000000
  -0.0001441900    0.0001614300    0.0000000000
  -0.0003376200    0.0000077500    0.0000000000
  -0.0001451800   -0.0001540100    0.0000000000
   0.0002979300   -0.0000000000    0.0000000000
  -0.0000879200   -0.0000000000    0.0000000000
   0.0007971100   -0.0000000000    0.0000000000
  -0.0001010400   -0.0000000000    0.0000000000
   0.0000491100    0.0000022700    0.0000000000
  -0.0001441900   -0.0001614300    0.0000000000
  -0.0003376200   -0.0000077500    0.0000000000
  -0.0001451800    0.0001540100    0.0000000000
   0.0000887500   -0.0000000000    0.0000039900
   0.0004603900   -0.0000000000    0.0003499000
   0.0006532100   -0.0000000000   -0.0000103700
   0.0004416900   -0.0000000000   -0.0003638400
   0.0003247700   -0.0000000100    0.0000000100
   0.0004576000    0.0001768100   -0.0001768100
   0.0001762100   -0.0000019800    0.0000019800
   0.0004241900   -0.0001613700    0.0001613700
   0.0000491100   -0.0000000000    0.0000022700
  -0.0001441900   -0.0000000000   -0.0001614300
  -0.0003376200   -0.0000000000   -0.0000077500
  -0.0001451800   -0.0000000000    0.0001540100
   0.0003247700    0.0000000100    0.0000000100
   0.0004576000   -0.0001768100   -0.0001768100
   0.0001762100    0.0000019800    0.0000019800
   0.0004241900    0.0001613700    0.0001613700
