128  
2    

1    
  0.0100000000000000   0.0000000000000000   0.0000000000000000
  -0.0818527500   -0.0000000000   -0.0000000000
   0.0007355300   -0.0000000000   -0.0000000000
  -0.0001741100   -0.0000000000   -0.0000000000
   0.0003398400   -0.0000000000   -0.0000000000
  -0.0001741100   -0.0000000000   -0.0000000000
   0.0003398400   -0.0000000000   -0.0000000000
  -0.0000657300   -0.0000000000   -0.0000000000
   0.0000726400   -0.0000000000   -0.0000000000
   0.0022080600   -0.0000000000   -0.0000000000
   0.0021249000   -0.0000000000   -0.0000000000
   0.0000677900   -0.0000000000   -0.0000000000
   0.0000678900   -0.0000000000   -0.0000000000
   0.0000677900   -0.0000000000   -0.0000000000
   0.0000678900   -0.0000000000   -0.0000000000
   0.0000975100   -0.0000000000   -0.0000000000
   0.0001003300   -0.0000000000   -0.0000000000
  -0.0018482400    0.0000047900   -0.0000000000
   0.0002330400   -0.0000010000   -0.0000000000
  -0.0018482400   -0.0000047900   -0.0000000000
   0.0002330400    0.0000010000   -0.0000000000
  -0.0003159600    0.0000008500   -0.0000000000
   0.0002105200   -0.0000004500   -0.0000000000
  -0.0003159600   -0.0000008500   -0.0000000000
   0.0002105200    0.0000004500   -0.0000000000
   0.0015338400    0.0018508700   -0.0000000000
   0.0015222700   -0.0018383900   -0.0000000000
   0.0015338400   -0.0018508700   -0.0000000000
   0.0015222700    0.0018383900   -0.0000000000
  -0.0000381500   -0.0001709400   -0.0000000000
  -0.0000377300    0.0001711900   -0.0000000000
  -0.0000381500    0.0001709400   -0.0000000000
  -0.0000377300   -0.0001711900   -0.0000000000
  -0.0018482400   -0.0000000000    0.0000047900
   0.0002330400   -0.0000000000   -0.0000010000
  -0.0003159600   -0.0000000000    0.0000008500
   0.0002105200   -0.0000000000   -0.0000004500
  -0.0018482400   -0.0000000000   -0.0000047900
   0.0002330400   -0.0000000000    0.0000010000
  -0.0003159600   -0.0000000000   -0.0000008500
   0.0002105200   -0.0000000000    0.0000004500
   0.0015338400   -0.0000000000    0.0018508700
   0.0015222700   -0.0000000000   -0.0018383900
  -0.0000381500   -0.0000000000   -0.0001709400
  -0.0000377300   -0.0000000000    0.0001711900
   0.0015338400   -0.0000000000   -0.0018508700
   0.0015222700   -0.0000000000    0.0018383900
  -0.0000381500   -0.0000000000    0.0001709400
  -0.0000377300   -0.0000000000   -0.0001711900
  -0.0015640300    0.0000052200    0.0000052200
   0.0003163000   -0.0000008200   -0.0000008200
  -0.0015640300   -0.0000052200    0.0000052200
   0.0003163000    0.0000008200   -0.0000008200
  -0.0015640300    0.0000052200   -0.0000052200
   0.0003163000   -0.0000008200    0.0000008200
  -0.0015640300   -0.0000052200   -0.0000052200
   0.0003163000    0.0000008200    0.0000008200
   0.0011245500    0.0009773800    0.0009773800
   0.0011220000   -0.0009805600   -0.0009805600
   0.0011245500   -0.0009773800    0.0009773800
   0.0011220000    0.0009805600   -0.0009805600
   0.0011245500    0.0009773800   -0.0009773800
   0.0011220000   -0.0009805600    0.0009805600
   0.0011245500   -0.0009773800   -0.0009773800
   0.0011220000    0.0009805600    0.0009805600
   0.0085722800    0.0108084700    0.0108084700
  -0.0001669400    0.0000231300    0.0000231300
   0.0002690100    0.0004381900    0.0002270200
  -0.0003581600   -0.0003518800    0.0000551200
   0.0002690100    0.0002270200    0.0004381900
  -0.0003581600    0.0000551200   -0.0003518800
   0.0001775800    0.0000602000    0.0000602000
   0.0000111400    0.0000124600    0.0000124600
  -0.0001537600   -0.0000215400   -0.0000215400
   0.0084762800   -0.0105457500   -0.0105457500
  -0.0003617700    0.0003558100   -0.0000534300
   0.0002673500   -0.0004368300   -0.0002255900
  -0.0003617700   -0.0000534300    0.0003558100
   0.0002673500   -0.0002255900   -0.0004368300
   0.0000106800   -0.0000133000   -0.0000133000
   0.0001756300   -0.0000621200   -0.0000621200
   0.0002690100   -0.0004381900    0.0002270200
  -0.0003581600    0.0003518800    0.0000551200
   0.0085722800   -0.0108084700    0.0108084700
  -0.0001669400   -0.0000231300    0.0000231300
   0.0001775800   -0.0000602000    0.0000602000
   0.0000111400   -0.0000124600    0.0000124600
   0.0002690100   -0.0002270200    0.0004381900
  -0.0003581600   -0.0000551200   -0.0003518800
  -0.0003617700   -0.0003558100   -0.0000534300
   0.0002673500    0.0004368300   -0.0002255900
  -0.0001537600    0.0000215400   -0.0000215400
   0.0084762800    0.0105457500   -0.0105457500
   0.0000106800    0.0000133000   -0.0000133000
   0.0001756300    0.0000621200   -0.0000621200
  -0.0003617700    0.0000534300    0.0003558100
   0.0002673500    0.0002255900   -0.0004368300
   0.0002690100    0.0002270200   -0.0004381900
  -0.0003581600    0.0000551200    0.0003518800
   0.0001775800    0.0000602000   -0.0000602000
   0.0000111400    0.0000124600   -0.0000124600
   0.0085722800    0.0108084700   -0.0108084700
  -0.0001669400    0.0000231300   -0.0000231300
   0.0002690100    0.0004381900   -0.0002270200
  -0.0003581600   -0.0003518800   -0.0000551200
  -0.0003617700   -0.0000534300   -0.0003558100
   0.0002673500   -0.0002255900    0.0004368300
   0.0000106800   -0.0000133000    0.0000133000
   0.0001756300   -0.0000621200    0.0000621200
  -0.0001537600   -0.0000215400    0.0000215400
   0.0084762800   -0.0105457500    0.0105457500
  -0.0003617700    0.0003558100    0.0000534300
   0.0002673500   -0.0004368300    0.0002255900
   0.0001775800   -0.0000602000   -0.0000602000
   0.0000111400   -0.0000124600   -0.0000124600
   0.0002690100   -0.0002270200   -0.0004381900
  -0.0003581600   -0.0000551200    0.0003518800
   0.0002690100   -0.0004381900   -0.0002270200
  -0.0003581600    0.0003518800   -0.0000551200
   0.0085722800   -0.0108084700   -0.0108084700
  -0.0001669400   -0.0000231300   -0.0000231300
   0.0000106800    0.0000133000    0.0000133000
   0.0001756300    0.0000621200    0.0000621200
  -0.0003617700    0.0000534300   -0.0003558100
   0.0002673500    0.0002255900    0.0004368300
  -0.0003617700   -0.0003558100    0.0000534300
   0.0002673500    0.0004368300    0.0002255900
  -0.0001537600    0.0000215400    0.0000215400
   0.0084762800    0.0105457500    0.0105457500

65   
  0.0100000000000000   0.0000000000000000   0.0000000000000000
   0.0084601900    0.0105408600    0.0105408600
  -0.0001545800    0.0004457500    0.0004457500
   0.0002638500    0.0000217200    0.0002234700
  -0.0003554500   -0.0003541100    0.0000604900
   0.0002638500    0.0002234700    0.0000217200
  -0.0003554500    0.0000604900   -0.0003541100
   0.0001732900    0.0000505600    0.0000505600
   0.0000120800    0.0000146800    0.0000146800
   0.0085838400   -0.0108144400   -0.0108144400
  -0.0001629500   -0.0004299300   -0.0004299300
   0.0002656400   -0.0000230200   -0.0002289200
  -0.0003597100    0.0003563200   -0.0000618400
   0.0002656400   -0.0002289200   -0.0000230200
  -0.0003597100   -0.0000618400    0.0003563200
   0.0001771300   -0.0000548400   -0.0000548400
   0.0000106400   -0.0000146900   -0.0000146900
   0.0084601900   -0.0105408600    0.0105408600
  -0.0001545800   -0.0004457500    0.0004457500
   0.0002638500   -0.0000217200    0.0002234700
  -0.0003554500    0.0003541100    0.0000604900
   0.0002638500   -0.0002234700    0.0000217200
  -0.0003554500   -0.0000604900   -0.0003541100
   0.0001732900   -0.0000505600    0.0000505600
   0.0000120800   -0.0000146800    0.0000146800
   0.0085838400    0.0108144400   -0.0108144400
  -0.0001629500    0.0004299300   -0.0004299300
   0.0002656400    0.0000230200   -0.0002289200
  -0.0003597100   -0.0003563200   -0.0000618400
   0.0002656400    0.0002289200   -0.0000230200
  -0.0003597100    0.0000618400    0.0003563200
   0.0001771300    0.0000548400   -0.0000548400
   0.0000106400    0.0000146900   -0.0000146900
   0.0084601900    0.0105408600   -0.0105408600
  -0.0001545800    0.0004457500   -0.0004457500
   0.0002638500    0.0000217200   -0.0002234700
  -0.0003554500   -0.0003541100   -0.0000604900
   0.0002638500    0.0002234700   -0.0000217200
  -0.0003554500    0.0000604900    0.0003541100
   0.0001732900    0.0000505600   -0.0000505600
   0.0000120800    0.0000146800   -0.0000146800
   0.0085838400   -0.0108144400    0.0108144400
  -0.0001629500   -0.0004299300    0.0004299300
   0.0002656400   -0.0000230200    0.0002289200
  -0.0003597100    0.0003563200    0.0000618400
   0.0002656400   -0.0002289200    0.0000230200
  -0.0003597100   -0.0000618400   -0.0003563200
   0.0001771300   -0.0000548400    0.0000548400
   0.0000106400   -0.0000146900    0.0000146900
   0.0084601900   -0.0105408600   -0.0105408600
  -0.0001545800   -0.0004457500   -0.0004457500
   0.0002638500   -0.0000217200   -0.0002234700
  -0.0003554500    0.0003541100   -0.0000604900
   0.0002638500   -0.0002234700   -0.0000217200
  -0.0003554500   -0.0000604900    0.0003541100
   0.0001732900   -0.0000505600   -0.0000505600
   0.0000120800   -0.0000146800   -0.0000146800
   0.0085838400    0.0108144400    0.0108144400
  -0.0001629500    0.0004299300    0.0004299300
   0.0002656400    0.0000230200    0.0002289200
  -0.0003597100   -0.0003563200    0.0000618400
   0.0002656400    0.0002289200    0.0000230200
  -0.0003597100    0.0000618400   -0.0003563200
   0.0001771300    0.0000548400    0.0000548400
   0.0000106400    0.0000146900    0.0000146900
  -0.1012755300   -0.0000000000   -0.0000000000
   0.0012893400   -0.0000000000   -0.0000000000
  -0.0005024000   -0.0000000000   -0.0000000000
   0.0002248600   -0.0000000000   -0.0000000000
  -0.0005024000   -0.0000000000   -0.0000000000
   0.0002248600   -0.0000000000   -0.0000000000
  -0.0003726500   -0.0000000000   -0.0000000000
   0.0003779300   -0.0000000000   -0.0000000000
   0.0105403200   -0.0000000000   -0.0000000000
   0.0099176100   -0.0000000000   -0.0000000000
  -0.0001503200   -0.0000000000   -0.0000000000
  -0.0001468800   -0.0000000000   -0.0000000000
  -0.0001503200   -0.0000000000   -0.0000000000
  -0.0001468800   -0.0000000000   -0.0000000000
  -0.0000102000   -0.0000000000   -0.0000000000
  -0.0000112000   -0.0000000000   -0.0000000000
   0.0008063600   -0.0000142800   -0.0000000000
   0.0001326000   -0.0000017800   -0.0000000000
   0.0008063600    0.0000142800   -0.0000000000
   0.0001326000    0.0000017800   -0.0000000000
  -0.0000051700   -0.0000031200   -0.0000000000
   0.0001327900   -0.0000004900   -0.0000000000
  -0.0000051700    0.0000031200   -0.0000000000
   0.0001327900    0.0000004900   -0.0000000000
   0.0011949100    0.0017010800   -0.0000000000
   0.0012079900   -0.0017089900   -0.0000000000
   0.0011949100   -0.0017010800   -0.0000000000
   0.0012079900    0.0017089900   -0.0000000000
   0.0000600600   -0.0001522600   -0.0000000000
   0.0000592300    0.0001539200   -0.0000000000
   0.0000600600    0.0001522600   -0.0000000000
   0.0000592300   -0.0001539200   -0.0000000000
   0.0008063600   -0.0000000000   -0.0000142800
   0.0001326000   -0.0000000000   -0.0000017800
  -0.0000051700   -0.0000000000   -0.0000031200
   0.0001327900   -0.0000000000   -0.0000004900
   0.0008063600   -0.0000000000    0.0000142800
   0.0001326000   -0.0000000000    0.0000017800
  -0.0000051700   -0.0000000000    0.0000031200
   0.0001327900   -0.0000000000    0.0000004900
   0.0011949100   -0.0000000000    0.0017010800
   0.0012079900   -0.0000000000   -0.0017089900
   0.0000600600   -0.0000000000   -0.0001522600
   0.0000592300   -0.0000000000    0.0001539200
   0.0011949100   -0.0000000000   -0.0017010800
   0.0012079900   -0.0000000000    0.0017089900
   0.0000600600   -0.0000000000    0.0001522600
   0.0000592300   -0.0000000000   -0.0001539200
  -0.0017520500   -0.0000053500   -0.0000053500
  -0.0002981900    0.0000013800    0.0000013800
  -0.0017520500    0.0000053500   -0.0000053500
  -0.0002981900   -0.0000013800    0.0000013800
  -0.0017520500   -0.0000053500    0.0000053500
  -0.0002981900    0.0000013800   -0.0000013800
  -0.0017520500    0.0000053500    0.0000053500
  -0.0002981900   -0.0000013800   -0.0000013800
   0.0009575500    0.0011792700    0.0011792700
   0.0009490800   -0.0011769100   -0.0011769100
   0.0009575500   -0.0011792700    0.0011792700
   0.0009490800    0.0011769100   -0.0011769100
   0.0009575500    0.0011792700   -0.0011792700
   0.0009490800   -0.0011769100    0.0011769100
   0.0009575500   -0.0011792700   -0.0011792700
   0.0009490800    0.0011769100    0.0011769100
